 Gaussian 16, Revision A.03,
 Gaussian 16:  EM64L-G16RevA.03 25-Dec-2016

 -----------------------------------------------------
 #p opt=modredundant wb97xd/cc-pvdz scf=(maxcycles=25)
 -----------------------------------------------------

 --------
 basepair
 --------
 Symbolic Z-matrix:
 Charge =  0 Multiplicity = 1

 SCF Done:  E(RwB97XD) =  -1325.06391943     A.U. after   15 cycles
 SCF Done:  E(RwB97XD) =  -1325.07445183     A.U. after   12 cycles
 SCF Done:  E(RwB97XD) =  -1325.07775455     A.U. after   12 cycles
 SCF Done:  E(RwB97XD) =  -1325.07906440     A.U. after   11 cycles
 SCF Done:  E(RwB97XD) =  -1325.08002645     A.U. after   11 cycles
 SCF Done:  E(RwB97XD) =  -1325.08170446     A.U. after   11 cycles
 SCF Done:  E(RwB97XD) =  -1325.08439447     A.U. after   13 cycles
 SCF Done:  E(RwB97XD) =  -1325.08630581     A.U. after   13 cycles
 SCF Done:  E(RwB97XD) =  -1325.08550465     A.U. after   13 cycles
 SCF Done:  E(RwB97XD) =  -1325.08825642     A.U. after   12 cycles
 SCF Done:  E(RwB97XD) =  -1325.08882811     A.U. after   11 cycles
 SCF Done:  E(RwB97XD) =  -1325.08918902     A.U. after   11 cycles
 SCF Done:  E(RwB97XD) =  -1325.08920019     A.U. after    9 cycles
 SCF Done:  E(RwB97XD) =  -1325.08920704     A.U. after    8 cycles
 SCF Done:  E(RwB97XD) =  -1325.08922044     A.U. after   10 cycles
 SCF Done:  E(RwB97XD) =  -1325.08923333     A.U. after   10 cycles
 SCF Done:  E(RwB97XD) =  -1325.08923704     A.U. after    9 cycles
 Optimization completed.
    -- Stationary point found.

                         Standard orientation:
 ---------------------------------------------------------------------
 Center     Atomic      Atomic             Coordinates (Angstroms)
 Number     Number       Type             X           Y           Z
 ---------------------------------------------------------------------
      1          6           0        7.153369    0.615387   -0.257883
      2          1           0        7.610488    0.451603    0.726496
      3          1           0        7.282550    1.658876   -0.572447
      4          1           0        7.637754   -0.062712   -0.971856
      5          7           0        5.714099    0.318108   -0.192565
      6          6           0        4.757339    1.246764   -0.453707
      7          1           0        5.106155    2.242465   -0.731864
      8          6           0        3.453908    0.936048   -0.363606
      9          1           0        2.676364    1.671948   -0.566255
     10          6           0        5.351915   -0.967651    0.197246
     11          8           0        6.260384   -1.778677    0.447421
     12          7           0        4.040482   -1.305755    0.289781
     13          6           0        3.110485   -0.394024    0.021646
     14          7           0        1.830571   -0.754331    0.133816
     15          1           0        1.689050   -1.508961    0.798680
     16          1           0        1.168992    0.027004    0.153823
     17          1           0       -6.230567   -1.116161   -0.674409
     18          8           0       -5.330506   -1.144691   -0.337302
     19          6           0       -4.621887   -2.140886   -1.046413
     20          1           0       -4.725196   -2.011319   -2.138452
     21          1           0       -4.998247   -3.146412   -0.781659
     22          6           0       -3.156567   -2.117059   -0.709805
     23          1           0       -2.698907   -3.039808   -1.107070
     24          8           0       -2.523825   -0.977637   -1.330432
     25          6           0       -1.497613   -0.492108   -0.507738
     26          1           0       -0.553476   -0.416125   -1.062013
     27          7           0       -1.833157    0.902641   -0.143575
     28          6           0       -3.121940    1.248999    0.171334
     29          1           0       -3.861955    0.449057    0.109956
     30          6           0       -3.469644    2.503341    0.470557
     31          1           0       -4.501460    2.753029    0.711222
     32          6           0       -0.844293    1.887112   -0.231489
     33          8           0        0.317075    1.552599   -0.540332
     34          7           0       -1.186224    3.169073    0.055539
     35          6           0       -2.444455    3.477804    0.391417
     36          7           0       -2.724706    4.756044    0.667146
     37          1           0       -1.985915    5.440784    0.583280
     38          1           0       -3.656353    5.052106    0.910600
     39          6           0       -1.398882   -1.424932    0.698342
     40          1           0       -1.091499   -0.898687    1.616205
     41          8           0       -0.481661   -2.455535    0.370411
     42          1           0        0.191828   -2.107181   -0.229551
     43          6           0       -2.807885   -1.989770    0.761133
     44          1           0       -3.489244   -1.304959    1.280444
     45          8           0       -2.886110   -3.240020    1.423001
     46          1           0       -2.083774   -3.717463    1.165552
 ---------------------------------------------------------------------

 The electronic state is 1-A.
 Alpha  occ. eigenvalues --  -19.29466 -19.29236 -19.28960 -19.27266 -19.23019
 Alpha  occ. eigenvalues --  -19.17615 -14.51798 -14.49472 -14.48776 -14.45046
 Alpha  occ. eigenvalues --  -14.43580 -14.39924 -10.43064 -10.41053 -10.40538
 Alpha  occ. eigenvalues --  -10.38092 -10.37420 -10.37189 -10.36794 -10.36535
 Alpha  occ. eigenvalues --  -10.36429 -10.36346 -10.34822 -10.32727 -10.31957
 Alpha  occ. eigenvalues --  -10.27984  -1.19785  -1.15910  -1.15604  -1.14805
 Alpha  occ. eigenvalues --   -1.13057  -1.11945  -1.08950  -1.06523  -1.05053
 Alpha  occ. eigenvalues --   -1.03289  -0.98949  -0.95446  -0.91258  -0.89638
 Alpha  occ. eigenvalues --   -0.87600  -0.87083  -0.80477  -0.79579  -0.77177
 Alpha  occ. eigenvalues --   -0.75322  -0.74232  -0.72753  -0.70619  -0.70111
 Alpha  occ. eigenvalues --   -0.67845  -0.66033  -0.64470  -0.64251  -0.64067
 Alpha  occ. eigenvalues --   -0.62960  -0.61881  -0.60145  -0.59790  -0.57775
 Alpha  occ. eigenvalues --   -0.57546  -0.56743  -0.55991  -0.55388  -0.55245
 Alpha  occ. eigenvalues --   -0.54954  -0.53737  -0.52943  -0.52667  -0.51153
 Alpha  occ. eigenvalues --   -0.51015  -0.50147  -0.50096  -0.48799  -0.48678
 Alpha  occ. eigenvalues --   -0.48335  -0.48005  -0.47086  -0.45341  -0.45108
 Alpha  occ. eigenvalues --   -0.44788  -0.43984  -0.43261  -0.42180  -0.40023
 Alpha  occ. eigenvalues --   -0.38933  -0.38619  -0.38303  -0.36225  -0.36078
 Alpha  occ. eigenvalues --   -0.35081  -0.34017  -0.32588  -0.32383  -0.31106
 Alpha  occ. eigenvalues --   -0.30094  -0.27765
 Alpha virt. eigenvalues --    0.02394   0.05543   0.07609   0.11147   0.11432
 Alpha virt. eigenvalues --    0.11714   0.12967   0.13971   0.14898   0.15109
 Alpha virt. eigenvalues --    0.15899   0.17237   0.17961   0.18401   0.18722

 Mulliken charges:
               1
     1  C    0.045439
     2  H    0.070985
     3  H    0.035226
     4  H    0.071961
     5  N   -0.260396
     6  C    0.175667
     7  H    0.040276
     8  C   -0.114336
     9  H    0.028169
    10  C    0.248337
    11  O   -0.338428
    12  N   -0.281140
    13  C    0.109067
    14  N   -0.156938
    15  H    0.125688
    16  H    0.137901
    17  H    0.161222
    18  O   -0.265523
    19  C    0.154009
    20  H    0.045228
    21  H    0.045164
    22  C    0.073024
    23  H    0.031469
    24  O   -0.317536
    25  C    0.203716
    26  H    0.044280
    27  N   -0.268345
    28  C    0.194768
    29  H    0.056833
    30  C   -0.105098
    31  H    0.010078
    32  C    0.309557
    33  O   -0.355167
    34  N   -0.292660
    35  C    0.145688
    36  N   -0.087678
    37  H    0.128841
    38  H    0.118074
    39  C    0.088306
    40  H    0.030594
    41  O   -0.285791
    42  H    0.163818
    43  C    0.118525
    44  H    0.039512
    45  O   -0.281762
    46  H    0.159378
 Sum of Mulliken charges =  -0.00000

 Dipole moment (field-independent basis, Debye):
    X=            -10.9097    Y=              6.8632    Z=             -0.9541  Tot=             12.9243
 Quadrupole moment (field-independent basis, Debye-Ang):
   XX=           -134.4260   YY=           -133.9407   ZZ=           -152.5578
   XY=             16.9985   XZ=             -3.4457   YZ=             13.3391

 Normal termination of Gaussian 16 at Sun Jun 23 10:17:42 2019.
